8
Lattice="4.898762 0 0 0 4.898762 0 0 0 4.898762 " PBC="1 1 1" Properties=species:S:1:pos:R:3:force:R:3 Energy="-29.590168713"
Si    0.00000e+00   0.00000e+00   0.00000e+00  4.44089e-16   8.32667e-17  -2.08167e-17
Si    2.44938e+00   2.44938e+00   0.00000e+00  1.24900e-16  -3.74700e-16   5.00034e-16
Si    0.00000e+00   2.44938e+00   2.44938e+00  1.33227e-15   5.27356e-16   1.17744e-16
Si    2.44938e+00   0.00000e+00   2.44938e+00 -4.44089e-16  -2.77556e-17   4.44015e-16
Si    1.22469e+00   1.22469e+00   1.22469e+00 -1.22125e-15  -2.98372e-16   9.02056e-17
Si    3.67407e+00   3.67407e+00   1.22469e+00 -1.80411e-16   2.20657e-15  -1.96024e-16
Si    1.22469e+00   3.67407e+00   3.67407e+00  5.41234e-16  -1.97065e-15   1.30450e-15
Si    3.67407e+00   1.22469e+00   3.67407e+00  3.83027e-15   5.55112e-16  -3.61039e-16
