64
Lattice="10.862 0.0 0.0 0.0 10.862 0.0 0.0 0.0 10.862" Properties=species:S:1:pos:R:3:forces:R:3 energy=-375.08303672 pbc="1 1 1"
Si       0.24454935       0.12859956      10.66240749       0.35136700      -0.66245000       0.26401400
Si       1.73029238       1.36074150       1.17814661      -1.26636600      -0.00443400       0.07551000
Si       2.95995235       2.72050695      10.69902872      -0.14218900       0.65143400      -0.55661200
Si       6.90013047       4.00404461       3.95300918      -0.72360500       0.43582800       0.06985200
Si       2.82161077      10.73638477       2.55304891       0.12190500      -0.15204600      -0.06621600
Si       3.93608075       1.13148020       4.10265104       1.60050900       0.20370200       0.24551500
Si       0.27986454       2.79618272       2.43382770       0.96081000      -0.40619200       0.55851500
Si       1.72218183       4.08926189       3.86036360      -1.32327600      -0.07434800       0.11219000
Si       0.20967853       0.01366852       5.27346831      -0.74906600      -0.08575300      -0.48819400
Si       1.48182630       1.34708015       6.66339405       0.12593200      -0.12912000       0.72258600
Si       2.81650628       2.73070072       5.36198633       0.21083800      -0.23299300      -0.15615900
Si       4.23699172       4.04211321       6.63741442       0.14480400       0.27356400       0.00052500
Si       2.96636419      10.85969421       8.03465333      -0.22642700       0.56908800      -0.47110800
Si       4.29721521       1.42170980       9.32751440      -0.07347500      -0.43182600       0.07087300
Si       9.73274195       4.07308283       6.51836267      -0.26555100       0.35532300      -0.01931900
Si       0.03705984       2.65909157       7.94201286       0.29651800       0.19106500       0.29397800
Si      10.85493677       5.36130550      10.73694960       0.84663000      -0.21330000       0.31795000
Si       1.39825853       6.72559725       1.24453939       0.02711200       0.33914700       0.00799000
Si       2.78666598       8.16819923      10.78959098      -0.00241300      -0.64454000       0.45093400
Si       4.25520001       9.45390984       1.23549634      -0.02975200       0.01922600      -0.26022000
Si       2.95533242       5.46094143       2.53351566       0.08120000       0.60465600      -0.47355600
Si       4.31299009       6.82167642       3.88274844      -0.50323100      -0.09123300       0.43792900
Si       0.06230226       8.17698181       2.58623742       0.05775500      -0.07304300      -0.47534200
Si       1.50292791       9.41922096       3.93406227      -0.21624300      -0.28598600       0.31456600
Si       0.23392805       5.44443934       5.15160351       0.50762800      -0.30959200       0.35267000
Si       1.57375684       6.73965028       6.62620636      -0.27536900       0.41644100      -0.24418400
Si       2.98098086       8.15044323       5.34163007      -0.19543200      -0.15951100      -0.66385100
Si       3.56350340      10.32507016       5.85504336       0.90034300      -0.03118700       0.11490300
Si       2.77496587       5.28587184       7.96171403      -0.05593500      -0.13212600       0.55851400
Si       3.94244263       6.61290443       9.49358971       0.80907500       0.21007000      -0.26560700
Si       0.22924381       8.12558478       7.99350515       0.24764600       0.14697000      -0.15932500
Si       1.59443374       9.50522367       9.34909589      -0.57934700       0.25944300      -0.18131200
Si       5.53331624      10.83635634      10.69168547       0.60007800       0.06461600       0.24193300
Si       5.56799078       2.80037827       2.47042374      -0.86554300      -0.41132000       0.43782300
Si       6.90624458       1.33904531       1.26044419      -0.70048400      -0.04257200      -0.66814600
Si       9.56891952       3.95366872       1.27584585      -0.25644500       0.86885100      -0.66845400
Si       9.76476638       1.51456860       3.78284302      -0.01876600      -0.97871800       1.04053100
Si       7.02588994       1.38808387       6.65602994       0.41084000      -0.21972500       0.45607100
Si       1.39343515       3.97547962       9.38957563       0.02251200      -0.05508300      -0.16920200
Si       4.27014797       4.20669282       1.06284159       0.40459100      -0.42168500       0.51316800
Si       6.21817533       0.44643602       4.74922278      -2.10583000       0.36046700       0.36095900
Si       9.61209348       1.33158464       9.36731939      -0.17679400      -0.03258000      -0.23762600
Si       8.31170027       2.71326840       5.20122558       0.74826400       0.01417500       0.58807500
Si       7.05118895       4.06019398       9.26230188       0.14650800       0.17522800       0.41807700
Si       8.29674003      10.72984813       8.05205317       0.05267700       0.79613400      -0.62821200
Si       9.69007775       9.67515640       1.20535603       0.35952000      -0.51713500      -0.44567100
Si       5.63507026       2.76046434       7.99448316       0.04068100      -0.32018000      -0.49223000
Si       8.23299421       2.63750747      10.73578856       0.19318200       0.10217500      -0.18435500
Si       5.77263043       5.45999535      10.63527954      -0.50224500       0.38535000      -0.30101800
Si       7.04578891       6.82196871       1.19107706       0.19617800      -0.30392200      -0.17259700
Si       8.37252605       8.22569962      10.69734913       0.50390700      -0.13043900       0.36379100
Si       8.33411096       0.12350148       2.55475087       0.22993900      -0.79636800       0.39390700
Si       8.21038800       5.34252195       2.62742493       0.56397800       0.30733500      -0.35539200
Si       9.65034879       6.72056586       3.87814795      -0.49135000       0.34584600       0.25445200
Si       5.65865470       8.09068398       2.52269526       0.00456500       0.58704800       0.05341000
Si       7.03812501       9.43228577       3.87684386       0.75973300      -0.44539700      -0.29744300
Si       5.56005685       5.45310678       5.29477010       0.41211400      -0.30970300       0.01376100
Si       6.95068939       6.77210583       6.69254429      -0.52122300      -0.35566400       0.01792400
Si       8.32696529       8.07264459       5.35240061       0.10107500       0.24286200      -0.57806500
Si       9.67321558       9.46285112       6.65913191       0.43476300       0.23290700      -0.25516500
Si       8.40108160       5.44149432       7.93651571       0.38793900      -0.15538700      -0.04981000
Si       9.74047493       6.80837785       9.35191078      -0.78432900       0.15904400      -0.15456600
Si       5.72574080       7.66116629       8.47105645      -0.11037400       0.24623600      -0.49807200
Si       6.92553690       9.43493371       9.35384356      -0.71754400       0.06122500       0.53863300
